<UPF version="2.0.1">
  <PP_INFO>

 This pseudopotential file has been produced using the code
 ONCVPSP  (Optimized Norm-Conservinng Vanderbilt PSeudopotential)
 scalar-relativistic version 3.3.1 12/12/2017 by D. R. Hamann
 The code is available through a link at URL www.mat-simresearch.com.
 Documentation with the package provides a full discription of the
 input data below.


 While it is not required under the terms of the GNU GPL, it is
 suggested that you cite D. R. Hamann, Phys. Rev. B 88, 085117 (2013)
 in any publication using these pseudopotentials.

    <PP_INPUTFILE>
# ATOM AND REFERENCE CONFIGURATION
# atsym  z   nc   nv     iexc    psfile
  O  8.00    1    2       4      upf
#
#   n    l    f        energy (Ha)
    1    0    2.00
    2    0    2.00
    2    1    4.00
#
# PSEUDOPOTENTIAL AND OPTIMIZATION
# lmax
    1
#
#   l,   rc,      ep,       ncon, nbas, qcut
    0   1.28705  -0.88057    5    8   8.98916
    1   1.46383  -0.33187    5    8   9.14990
#
# LOCAL POTENTIAL
# lloc, lpopt,  rc(5),   dvloc0
    4    5   0.89909      0.00000
#
# VANDERBILT-KLEINMAN-BYLANDER PROJECTORs
# l, nproj, debl
    0    2   1.51851
    1    2   1.53631
#
# MODEL CORE CHARGE
# icmod, fcfact, rcfact
    0   0.00000   0.00000
#
# LOG DERIVATIVE ANALYSIS
# epsh1, epsh2, depsh
   -5.00    3.00    0.02
#
# OUTPUT GRID
# rlmax, drl
    6.00    0.01
#
# TEST CONFIGURATIONS
# ncnf
    0
# nvcnf
#   n    l    f
    </PP_INPUTFILE>
  </PP_INFO>
  <!--                               -->
  <!-- END OF HUMAN READABLE SECTION -->
  <!--                               -->
    <PP_HEADER
       generated="Generated using ONCVPSP code by D. R. Hamann"
       author="anonymous"
       date="190614"
       comment=""
       element="O "
       pseudo_type="NC"
       relativistic="scalar"
       is_ultrasoft="F"
       is_paw="F"
       is_coulomb="F"
       has_so="F"
       has_wfc="F"
       has_gipaw="F"
       core_correction="F"
       functional="PBE"
       z_valence="    6.00"
       total_psenergy="  -3.14345353729E+01"
       rho_cutoff="   9.35000000000E+00"
       l_max="1"
       l_local="-1"
       mesh_size="   936"
       number_of_wfc="2"
       number_of_proj="4"/>
 <PP_MESH>
   <PP_R type="real"  size=" 936" columns="8">
    0.0000    0.0100    0.0200    0.0300    0.0400    0.0500    0.0600    0.0700
    0.0800    0.0900    0.1000    0.1100    0.1200    0.1300    0.1400    0.1500
    0.1600    0.1700    0.1800    0.1900    0.2000    0.2100    0.2200    0.2300
    0.2400    0.2500    0.2600    0.2700    0.2800    0.2900    0.3000    0.3100
    0.3200    0.3300    0.3400    0.3500    0.3600    0.3700    0.3800    0.3900
    0.4000    0.4100    0.4200    0.4300    0.4400    0.4500    0.4600    0.4700
    0.4800    0.4900    0.5000    0.5100    0.5200    0.5300    0.5400    0.5500
    0.5600    0.5700    0.5800    0.5900    0.6000    0.6100    0.6200    0.6300
    0.6400    0.6500    0.6600    0.6700    0.6800    0.6900    0.7000    0.7100
    0.7200    0.7300    0.7400    0.7500    0.7600    0.7700    0.7800    0.7900
    0.8000    0.8100    0.8200    0.8300    0.8400    0.8500    0.8600    0.8700
    0.8800    0.8900    0.9000    0.9100    0.9200    0.9300    0.9400    0.9500
    0.9600    0.9700    0.9800    0.9900    1.0000    1.0100    1.0200    1.0300
    1.0400    1.0500    1.0600    1.0700    1.0800    1.0900    1.1000    1.1100
    1.1200    1.1300    1.1400    1.1500    1.1600    1.1700    1.1800    1.1900
    1.2000    1.2100    1.2200    1.2300    1.2400    1.2500    1.2600    1.2700
    1.2800    1.2900    1.3000    1.3100    1.3200    1.3300    1.3400    1.3500
    1.3600    1.3700    1.3800    1.3900    1.4000    1.4100    1.4200    1.4300
    1.4400    1.4500    1.4600    1.4700    1.4800    1.4900    1.5000    1.5100
    1.5200    1.5300    1.5400    1.5500    1.5600    1.5700    1.5800    1.5900
    1.6000    1.6100    1.6200    1.6300    1.6400    1.6500    1.6600    1.6700
    1.6800    1.6900    1.7000    1.7100    1.7200    1.7300    1.7400    1.7500
    1.7600    1.7700    1.7800    1.7900    1.8000    1.8100    1.8200    1.8300
    1.8400    1.8500    1.8600    1.8700    1.8800    1.8900    1.9000    1.9100
    1.9200    1.9300    1.9400    1.9500    1.9600    1.9700    1.9800    1.9900
    2.0000    2.0100    2.0200    2.0300    2.0400    2.0500    2.0600    2.0700
    2.0800    2.0900    2.1000    2.1100    2.1200    2.1300    2.1400    2.1500
    2.1600    2.1700    2.1800    2.1900    2.2000    2.2100    2.2200    2.2300
    2.2400    2.2500    2.2600    2.2700    2.2800    2.2900    2.3000    2.3100
    2.3200    2.3300    2.3400    2.3500    2.3600    2.3700    2.3800    2.3900
    2.4000    2.4100    2.4200    2.4300    2.4400    2.4500    2.4600    2.4700
    2.4800    2.4900    2.5000    2.5100    2.5200    2.5300    2.5400    2.5500
    2.5600    2.5700    2.5800    2.5900    2.6000    2.6100    2.6200    2.6300
    2.6400    2.6500    2.6600    2.6700    2.6800    2.6900    2.7000    2.7100
    2.7200    2.7300    2.7400    2.7500    2.7600    2.7700    2.7800    2.7900
    2.8000    2.8100    2.8200    2.8300    2.8400    2.8500    2.8600    2.8700
    2.8800    2.8900    2.9000    2.9100    2.9200    2.9300    2.9400    2.9500
    2.9600    2.9700    2.9800    2.9900    3.0000    3.0100    3.0200    3.0300
    3.0400    3.0500    3.0600    3.0700    3.0800    3.0900    3.1000    3.1100
    3.1200    3.1300    3.1400    3.1500    3.1600    3.1700    3.1800    3.1900
    3.2000    3.2100    3.2200    3.2300    3.2400    3.2500    3.2600    3.2700
    3.2800    3.2900    3.3000    3.3100    3.3200    3.3300    3.3400    3.3500
    3.3600    3.3700    3.3800    3.3900    3.4000    3.4100    3.4200    3.4300
    3.4400    3.4500    3.4600    3.4700    3.4800    3.4900    3.5000    3.5100
    3.5200    3.5300    3.5400    3.5500    3.5600    3.5700    3.5800    3.5900
    3.6000    3.6100    3.6200    3.6300    3.6400    3.6500    3.6600    3.6700
    3.6800    3.6900    3.7000    3.7100    3.7200    3.7300    3.7400    3.7500
    3.7600    3.7700    3.7800    3.7900    3.8000    3.8100    3.8200    3.8300
    3.8400    3.8500    3.8600    3.8700    3.8800    3.8900    3.9000    3.9100
    3.9200    3.9300    3.9400    3.9500    3.9600    3.9700    3.9800    3.9900
    4.0000    4.0100    4.0200    4.0300    4.0400    4.0500    4.0600    4.0700
    4.0800    4.0900    4.1000    4.1100    4.1200    4.1300    4.1400    4.1500
    4.1600    4.1700    4.1800    4.1900    4.2000    4.2100    4.2200    4.2300
    4.2400    4.2500    4.2600    4.2700    4.2800    4.2900    4.3000    4.3100
    4.3200    4.3300    4.3400    4.3500    4.3600    4.3700    4.3800    4.3900
    4.4000    4.4100    4.4200    4.4300    4.4400    4.4500    4.4600    4.4700
    4.4800    4.4900    4.5000    4.5100    4.5200    4.5300    4.5400    4.5500
    4.5600    4.5700    4.5800    4.5900    4.6000    4.6100    4.6200    4.6300
    4.6400    4.6500    4.6600    4.6700    4.6800    4.6900    4.7000    4.7100
    4.7200    4.7300    4.7400    4.7500    4.7600    4.7700    4.7800    4.7900
    4.8000    4.8100    4.8200    4.8300    4.8400    4.8500    4.8600    4.8700
    4.8800    4.8900    4.9000    4.9100    4.9200    4.9300    4.9400    4.9500
    4.9600    4.9700    4.9800    4.9900    5.0000    5.0100    5.0200    5.0300
    5.0400    5.0500    5.0600    5.0700    5.0800    5.0900    5.1000    5.1100
    5.1200    5.1300    5.1400    5.1500    5.1600    5.1700    5.1800    5.1900
    5.2000    5.2100    5.2200    5.2300    5.2400    5.2500    5.2600    5.2700
    5.2800    5.2900    5.3000    5.3100    5.3200    5.3300    5.3400    5.3500
    5.3600    5.3700    5.3800    5.3900    5.4000    5.4100    5.4200    5.4300
    5.4400    5.4500    5.4600    5.4700    5.4800    5.4900    5.5000    5.5100
    5.5200    5.5300    5.5400    5.5500    5.5600    5.5700    5.5800    5.5900
    5.6000    5.6100    5.6200    5.6300    5.6400    5.6500    5.6600    5.6700
    5.6800    5.6900    5.7000    5.7100    5.7200    5.7300    5.7400    5.7500
    5.7600    5.7700    5.7800    5.7900    5.8000    5.8100    5.8200    5.8300
    5.8400    5.8500    5.8600    5.8700    5.8800    5.8900    5.9000    5.9100
    5.9200    5.9300    5.9400    5.9500    5.9600    5.9700    5.9800    5.9900
    6.0000    6.0100    6.0200    6.0300    6.0400    6.0500    6.0600    6.0700
    6.0800    6.0900    6.1000    6.1100    6.1200    6.1300    6.1400    6.1500
    6.1600    6.1700    6.1800    6.1900    6.2000    6.2100    6.2200    6.2300
    6.2400    6.2500    6.2600    6.2700    6.2800    6.2900    6.3000    6.3100
    6.3200    6.3300    6.3400    6.3500    6.3600    6.3700    6.3800    6.3900
    6.4000    6.4100    6.4200    6.4300    6.4400    6.4500    6.4600    6.4700
    6.4800    6.4900    6.5000    6.5100    6.5200    6.5300    6.5400    6.5500
    6.5600    6.5700    6.5800    6.5900    6.6000    6.6100    6.6200    6.6300
    6.6400    6.6500    6.6600    6.6700    6.6800    6.6900    6.7000    6.7100
    6.7200    6.7300    6.7400    6.7500    6.7600    6.7700    6.7800    6.7900
    6.8000    6.8100    6.8200    6.8300    6.8400    6.8500    6.8600    6.8700
    6.8800    6.8900    6.9000    6.9100    6.9200    6.9300    6.9400    6.9500
    6.9600    6.9700    6.9800    6.9900    7.0000    7.0100    7.0200    7.0300
    7.0400    7.0500    7.0600    7.0700    7.0800    7.0900    7.1000    7.1100
    7.1200    7.1300    7.1400    7.1500    7.1600    7.1700    7.1800    7.1900
    7.2000    7.2100    7.2200    7.2300    7.2400    7.2500    7.2600    7.2700
    7.2800    7.2900    7.3000    7.3100    7.3200    7.3300    7.3400    7.3500
    7.3600    7.3700    7.3800    7.3900    7.4000    7.4100    7.4200    7.4300
    7.4400    7.4500    7.4600    7.4700    7.4800    7.4900    7.5000    7.5100
    7.5200    7.5300    7.5400    7.5500    7.5600    7.5700    7.5800    7.5900
    7.6000    7.6100    7.6200    7.6300    7.6400    7.6500    7.6600    7.6700
    7.6800    7.6900    7.7000    7.7100    7.7200    7.7300    7.7400    7.7500
    7.7600    7.7700    7.7800    7.7900    7.8000    7.8100    7.8200    7.8300
    7.8400    7.8500    7.8600    7.8700    7.8800    7.8900    7.9000    7.9100
    7.9200    7.9300    7.9400    7.9500    7.9600    7.9700    7.9800    7.9900
    8.0000    8.0100    8.0200    8.0300    8.0400    8.0500    8.0600    8.0700
    8.0800    8.0900    8.1000    8.1100    8.1200    8.1300    8.1400    8.1500
    8.1600    8.1700    8.1800    8.1900    8.2000    8.2100    8.2200    8.2300
    8.2400    8.2500    8.2600    8.2700    8.2800    8.2900    8.3000    8.3100
    8.3200    8.3300    8.3400    8.3500    8.3600    8.3700    8.3800    8.3900
    8.4000    8.4100    8.4200    8.4300    8.4400    8.4500    8.4600    8.4700
    8.4800    8.4900    8.5000    8.5100    8.5200    8.5300    8.5400    8.5500
    8.5600    8.5700    8.5800    8.5900    8.6000    8.6100    8.6200    8.6300
    8.6400    8.6500    8.6600    8.6700    8.6800    8.6900    8.7000    8.7100
    8.7200    8.7300    8.7400    8.7500    8.7600    8.7700    8.7800    8.7900
    8.8000    8.8100    8.8200    8.8300    8.8400    8.8500    8.8600    8.8700
    8.8800    8.8900    8.9000    8.9100    8.9200    8.9300    8.9400    8.9500
    8.9600    8.9700    8.9800    8.9900    9.0000    9.0100    9.0200    9.0300
    9.0400    9.0500    9.0600    9.0700    9.0800    9.0900    9.1000    9.1100
    9.1200    9.1300    9.1400    9.1500    9.1600    9.1700    9.1800    9.1900
    9.2000    9.2100    9.2200    9.2300    9.2400    9.2500    9.2600    9.2700
    9.2800    9.2900    9.3000    9.3100    9.3200    9.3300    9.3400    9.3500
   </PP_R>
   <PP_RAB type="real"  size=" 936" columns="8">
    0.0100    0.0100    0.0100    0.0100    0.0100    0.0100    0.0100    0.0100
    0.0100    0.0100    0.0100    0.0100    0.0100    0.0100    0.0100    0.0100
    0.0100    0.0100    0.0100    0.0100    0.0100    0.0100    0.0100    0.0100
    0.0100    0.0100    0.0100    0.0100    0.0100    0.0100    0.0100    0.0100
    0.0100    0.0100    0.0100    0.0100    0.0100    0.0100    0.0100    0.0100
    0.0100    0.0100    0.0100    0.0100    0.0100    0.0100    0.0100    0.0100
    0.0100    0.0100    0.0100    0.0100    0.0100    0.0100    0.0100    0.0100
    0.0100    0.0100    0.0100    0.0100    0.0100    0.0100    0.0100    0.0100
    0.0100    0.0100    0.0100    0.0100    0.0100    0.0100    0.0100    0.0100
    0.0100    0.0100    0.0100    0.0100    0.0100    0.0100    0.0100    0.0100
    0.0100    0.0100    0.0100    0.0100    0.0100    0.0100    0.0100    0.0100
    0.0100    0.0100    0.0100    0.0100    0.0100    0.0100    0.0100    0.0100
    0.0100    0.0100    0.0100    0.0100    0.0100    0.0100    0.0100    0.0100
    0.0100    0.0100    0.0100    0.0100    0.0100    0.0100    0.0100    0.0100
    0.0100    0.0100    0.0100    0.0100    0.0100    0.0100    0.0100    0.0100
    0.0100    0.0100    0.0100    0.0100    0.0100    0.0100    0.0100    0.0100
    0.0100    0.0100    0.0100    0.0100    0.0100    0.0100    0.0100    0.0100
    0.0100    0.0100    0.0100    0.0100    0.0100    0.0100    0.0100    0.0100
    0.0100    0.0100    0.0100    0.0100    0.0100    0.0100    0.0100    0.0100
    0.0100    0.0100    0.0100    0.0100    0.0100    0.0100    0.0100    0.0100
    0.0100    0.0100    0.0100    0.0100    0.0100    0.0100    0.0100    0.0100
    0.0100    0.0100    0.0100    0.0100    0.0100    0.0100    0.0100    0.0100
    0.0100    0.0100    0.0100    0.0100    0.0100    0.0100    0.0100    0.0100
    0.0100    0.0100    0.0100    0.0100    0.0100    0.0100    0.0100    0.0100
    0.0100    0.0100    0.0100    0.0100    0.0100    0.0100    0.0100    0.0100
    0.0100    0.0100    0.0100    0.0100    0.0100    0.0100    0.0100    0.0100
    0.0100    0.0100    0.0100    0.0100    0.0100    0.0100    0.0100    0.0100
    0.0100    0.0100    0.0100    0.0100    0.0100    0.0100    0.0100    0.0100
    0.0100    0.0100    0.0100    0.0100    0.0100    0.0100    0.0100    0.0100
    0.0100    0.0100    0.0100    0.0100    0.0100    0.0100    0.0100    0.0100
    0.0100    0.0100    0.0100    0.0100    0.0100    0.0100    0.0100    0.0100
    0.0100    0.0100    0.0100    0.0100    0.0100    0.0100    0.0100    0.0100
    0.0100    0.0100    0.0100    0.0100    0.0100    0.0100    0.0100    0.0100
    0.0100    0.0100    0.0100    0.0100    0.0100    0.0100    0.0100    0.0100
    0.0100    0.0100    0.0100    0.0100    0.0100    0.0100    0.0100    0.0100
    0.0100    0.0100    0.0100    0.0100    0.0100    0.0100    0.0100    0.0100
    0.0100    0.0100    0.0100    0.0100    0.0100    0.0100    0.0100    0.0100
    0.0100    0.0100    0.0100    0.0100    0.0100    0.0100    0.0100    0.0100
    0.0100    0.0100    0.0100    0.0100    0.0100    0.0100    0.0100    0.0100
    0.0100    0.0100    0.0100    0.0100    0.0100    0.0100    0.0100    0.0100
    0.0100    0.0100    0.0100    0.0100    0.0100    0.0100    0.0100    0.0100
    0.0100    0.0100    0.0100    0.0100    0.0100    0.0100    0.0100    0.0100
    0.0100    0.0100    0.0100    0.0100    0.0100    0.0100    0.0100    0.0100
    0.0100    0.0100    0.0100    0.0100    0.0100    0.0100    0.0100    0.0100
    0.0100    0.0100    0.0100    0.0100    0.0100    0.0100    0.0100    0.0100
    0.0100    0.0100    0.0100    0.0100    0.0100    0.0100    0.0100    0.0100
    0.0100    0.0100    0.0100    0.0100    0.0100    0.0100    0.0100    0.0100
    0.0100    0.0100    0.0100    0.0100    0.0100    0.0100    0.0100    0.0100
    0.0100    0.0100    0.0100    0.0100    0.0100    0.0100    0.0100    0.0100
    0.0100    0.0100    0.0100    0.0100    0.0100    0.0100    0.0100    0.0100
    0.0100    0.0100    0.0100    0.0100    0.0100    0.0100    0.0100    0.0100
    0.0100    0.0100    0.0100    0.0100    0.0100    0.0100    0.0100    0.0100
    0.0100    0.0100    0.0100    0.0100    0.0100    0.0100    0.0100    0.0100
    0.0100    0.0100    0.0100    0.0100    0.0100    0.0100    0.0100    0.0100
    0.0100    0.0100    0.0100    0.0100    0.0100    0.0100    0.0100    0.0100
    0.0100    0.0100    0.0100    0.0100    0.0100    0.0100    0.0100    0.0100
    0.0100    0.0100    0.0100    0.0100    0.0100    0.0100    0.0100    0.0100
    0.0100    0.0100    0.0100    0.0100    0.0100    0.0100    0.0100    0.0100
    0.0100    0.0100    0.0100    0.0100    0.0100    0.0100    0.0100    0.0100
    0.0100    0.0100    0.0100    0.0100    0.0100    0.0100    0.0100    0.0100
    0.0100    0.0100    0.0100    0.0100    0.0100    0.0100    0.0100    0.0100
    0.0100    0.0100    0.0100    0.0100    0.0100    0.0100    0.0100    0.0100
    0.0100    0.0100    0.0100    0.0100    0.0100    0.0100    0.0100    0.0100
    0.0100    0.0100    0.0100    0.0100    0.0100    0.0100    0.0100    0.0100
    0.0100    0.0100    0.0100    0.0100    0.0100    0.0100    0.0100    0.0100
    0.0100    0.0100    0.0100    0.0100    0.0100    0.0100    0.0100    0.0100
    0.0100    0.0100    0.0100    0.0100    0.0100    0.0100    0.0100    0.0100
    0.0100    0.0100    0.0100    0.0100    0.0100    0.0100    0.0100    0.0100
    0.0100    0.0100    0.0100    0.0100    0.0100    0.0100    0.0100    0.0100
    0.0100    0.0100    0.0100    0.0100    0.0100    0.0100    0.0100    0.0100
    0.0100    0.0100    0.0100    0.0100    0.0100    0.0100    0.0100    0.0100
    0.0100    0.0100    0.0100    0.0100    0.0100    0.0100    0.0100    0.0100
    0.0100    0.0100    0.0100    0.0100    0.0100    0.0100    0.0100    0.0100
    0.0100    0.0100    0.0100    0.0100    0.0100    0.0100    0.0100    0.0100
    0.0100    0.0100    0.0100    0.0100    0.0100    0.0100    0.0100    0.0100
    0.0100    0.0100    0.0100    0.0100    0.0100    0.0100    0.0100    0.0100
    0.0100    0.0100    0.0100    0.0100    0.0100    0.0100    0.0100    0.0100
    0.0100    0.0100    0.0100    0.0100    0.0100    0.0100    0.0100    0.0100
    0.0100    0.0100    0.0100    0.0100    0.0100    0.0100    0.0100    0.0100
    0.0100    0.0100    0.0100    0.0100    0.0100    0.0100    0.0100    0.0100
    0.0100    0.0100    0.0100    0.0100    0.0100    0.0100    0.0100    0.0100
    0.0100    0.0100    0.0100    0.0100    0.0100    0.0100    0.0100    0.0100
    0.0100    0.0100    0.0100    0.0100    0.0100    0.0100    0.0100    0.0100
    0.0100    0.0100    0.0100    0.0100    0.0100    0.0100    0.0100    0.0100
    0.0100    0.0100    0.0100    0.0100    0.0100    0.0100    0.0100    0.0100
    0.0100    0.0100    0.0100    0.0100    0.0100    0.0100    0.0100    0.0100
    0.0100    0.0100    0.0100    0.0100    0.0100    0.0100    0.0100    0.0100
    0.0100    0.0100    0.0100    0.0100    0.0100    0.0100    0.0100    0.0100
    0.0100    0.0100    0.0100    0.0100    0.0100    0.0100    0.0100    0.0100
    0.0100    0.0100    0.0100    0.0100    0.0100    0.0100    0.0100    0.0100
    0.0100    0.0100    0.0100    0.0100    0.0100    0.0100    0.0100    0.0100
    0.0100    0.0100    0.0100    0.0100    0.0100    0.0100    0.0100    0.0100
    0.0100    0.0100    0.0100    0.0100    0.0100    0.0100    0.0100    0.0100
    0.0100    0.0100    0.0100    0.0100    0.0100    0.0100    0.0100    0.0100
    0.0100    0.0100    0.0100    0.0100    0.0100    0.0100    0.0100    0.0100
    0.0100    0.0100    0.0100    0.0100    0.0100    0.0100    0.0100    0.0100
    0.0100    0.0100    0.0100    0.0100    0.0100    0.0100    0.0100    0.0100
    0.0100    0.0100    0.0100    0.0100    0.0100    0.0100    0.0100    0.0100
    0.0100    0.0100    0.0100    0.0100    0.0100    0.0100    0.0100    0.0100
    0.0100    0.0100    0.0100    0.0100    0.0100    0.0100    0.0100    0.0100
    0.0100    0.0100    0.0100    0.0100    0.0100    0.0100    0.0100    0.0100
    0.0100    0.0100    0.0100    0.0100    0.0100    0.0100    0.0100    0.0100
    0.0100    0.0100    0.0100    0.0100    0.0100    0.0100    0.0100    0.0100
    0.0100    0.0100    0.0100    0.0100    0.0100    0.0100    0.0100    0.0100
    0.0100    0.0100    0.0100    0.0100    0.0100    0.0100    0.0100    0.0100
    0.0100    0.0100    0.0100    0.0100    0.0100    0.0100    0.0100    0.0100
    0.0100    0.0100    0.0100    0.0100    0.0100    0.0100    0.0100    0.0100
    0.0100    0.0100    0.0100    0.0100    0.0100    0.0100    0.0100    0.0100
    0.0100    0.0100    0.0100    0.0100    0.0100    0.0100    0.0100    0.0100
    0.0100    0.0100    0.0100    0.0100    0.0100    0.0100    0.0100    0.0100
    0.0100    0.0100    0.0100    0.0100    0.0100    0.0100    0.0100    0.0100
    0.0100    0.0100    0.0100    0.0100    0.0100    0.0100    0.0100    0.0100
    0.0100    0.0100    0.0100    0.0100    0.0100    0.0100    0.0100    0.0100
    0.0100    0.0100    0.0100    0.0100    0.0100    0.0100    0.0100    0.0100
    0.0100    0.0100    0.0100    0.0100    0.0100    0.0100    0.0100    0.0100
    0.0100    0.0100    0.0100    0.0100    0.0100    0.0100    0.0100    0.0100
    0.0100    0.0100    0.0100    0.0100    0.0100    0.0100    0.0100    0.0100
   </PP_RAB>
 </PP_MESH>
  <PP_LOCAL type="real"  size=" 936" columns="4">
   -2.8926715805E+01   -3.0775557624E+01   -3.2336249481E+01   -3.2741717034E+01
   -3.2438092989E+01   -3.1934905386E+01   -3.1462264644E+01   -3.1079324528E+01
   -3.0778292250E+01   -3.0535572908E+01   -3.0329401692E+01   -3.0143533256E+01
   -2.9966708447E+01   -2.9791391562E+01   -2.9612711983E+01   -2.9427723233E+01
   -2.9234896833E+01   -2.9033757887E+01   -2.8824599605E+01   -2.8608243986E+01
   -2.8385836638E+01   -2.8158674892E+01   -2.7928072168E+01   -2.7695260440E+01
   -2.7461329334E+01   -2.7227196857E+01   -2.6993604368E+01   -2.6761127622E+01
   -2.6530196312E+01   -2.6301116021E+01   -2.6074088338E+01   -2.5849226635E+01
   -2.5626566444E+01   -2.5406070548E+01   -2.5187629690E+01   -2.4971060442E+01
   -2.4756102193E+01   -2.4542415468E+01   -2.4329583774E+01   -2.4117120934E+01
   -2.3904485228E+01   -2.3691100739E+01   -2.3476385093E+01   -2.3259781600E+01
   -2.3040792707E+01   -2.2819011140E+01   -2.2594145154E+01   -2.2366035000E+01
   -2.2134659009E+01   -2.1900129141E+01   -2.1662677310E+01   -2.1422634851E+01
   -2.1180408022E+01   -2.0936452473E+01   -2.0691249141E+01   -2.0445283372E+01
   -2.0199028254E+01   -1.9952932478E+01   -1.9707412490E+01   -1.9462848327E+01
   -1.9219582392E+01   -1.8977920367E+01   -1.8738133547E+01   -1.8500461977E+01
   -1.8265117933E+01   -1.8032289398E+01   -1.7802143317E+01   -1.7574828498E+01
   -1.7350478088E+01   -1.7129211624E+01   -1.6911136667E+01   -1.6696350053E+01
   -1.6484938817E+01   -1.6276980830E+01   -1.6072545194E+01   -1.5871692449E+01
   -1.5674474616E+01   -1.5480935122E+01   -1.5291108624E+01   -1.5105020763E+01
   -1.4922687859E+01   -1.4744116568E+01   -1.4569303509E+01   -1.4398234868E+01
   -1.4230885990E+01   -1.4067220959E+01   -1.3907192176E+01   -1.3750739927E+01
   -1.3597791946E+01   -1.3448262981E+01   -1.3302054454E+01   -1.3159053718E+01
   -1.3019140445E+01   -1.2882196644E+01   -1.2748110260E+01   -1.2616774445E+01
   -1.2488087540E+01   -1.2361952927E+01   -1.2238278882E+01   -1.2116978449E+01
   -1.1997969307E+01   -1.1881173644E+01   -1.1766518033E+01   -1.1653933301E+01
   -1.1543354403E+01   -1.1434720284E+01   -1.1327973740E+01   -1.1223061268E+01
   -1.1119932908E+01   -1.1018542078E+01   -1.0918845390E+01   -1.0820802462E+01
   -1.0724375716E+01   -1.0629530159E+01   -1.0536233161E+01   -1.0444454221E+01
   -1.0354164718E+01   -1.0265337670E+01   -1.0177947479E+01   -1.0091969679E+01
   -1.0007380692E+01   -9.9241575854E+00   -9.8422778478E+00   -9.7617191724E+00
   -9.6824592652E+00   -9.6044756700E+00   -9.5277456317E+00   -9.4522459708E+00
   -9.3779529790E+00   -9.3048423271E+00   -9.2328891841E+00   -9.1620688048E+00
   -9.0923566627E+00   -9.0237284336E+00   -8.9561591630E+00   -8.8896237343E+00
   -8.8240979046E+00   -8.7595575186E+00   -8.6959784590E+00   -8.6333371394E+00
   -8.5716104850E+00   -8.5107759569E+00   -8.4508116674E+00   -8.3916964510E+00
   -8.3334099503E+00   -8.2759326197E+00   -8.2192457382E+00   -8.1633314831E+00
   -8.1081729906E+00   -8.0537548109E+00   -8.0000624710E+00   -7.9470814080E+00
   -7.8947973799E+00   -7.8431967710E+00   -7.7922663088E+00   -7.7419930123E+00
   -7.6923642404E+00   -7.6433676810E+00   -7.5949913313E+00   -7.5472234903E+00
   -7.5000527493E+00   -7.4534679830E+00   -7.4074583408E+00   -7.3620132381E+00
   -7.3171223486E+00   -7.2727755960E+00   -7.2289631469E+00   -7.1856754034E+00
   -7.1429029961E+00   -7.1006367770E+00   -7.0588678137E+00   -7.0175873824E+00
   -6.9767869625E+00   -6.9364582300E+00   -6.8965930524E+00   -6.8571834832E+00
   -6.8182217562E+00   -6.7797002809E+00   -6.7416116373E+00   -6.7039485711E+00
   -6.6667039894E+00   -6.6298709558E+00   -6.5934426866E+00   -6.5574125462E+00
   -6.5217740432E+00   -6.4865208267E+00   -6.4516466823E+00   -6.4171455285E+00
   -6.3830114132E+00   -6.3492385104E+00   -6.3158211166E+00   -6.2827536477E+00
   -6.2500306360E+00   -6.2176467273E+00   -6.1855966776E+00   -6.1538753504E+00
   -6.1224777143E+00   -6.0913988397E+00   -6.0606338969E+00   -6.0301781532E+00
   -6.0000269705E+00   -5.9701758030E+00   -5.9406201950E+00   -5.9113557785E+00
   -5.8823782711E+00   -5.8536834743E+00   -5.8252672707E+00   -5.7971256226E+00
   -5.7692545702E+00   -5.7416502292E+00   -5.7143087893E+00   -5.6872265126E+00
   -5.6603997316E+00   -5.6338248478E+00   -5.6074983297E+00   -5.5814167119E+00
   -5.5555765929E+00   -5.5299746338E+00   -5.5046075574E+00   -5.4794721459E+00
   -5.4545652403E+00   -5.4298837386E+00   -5.4054245949E+00   -5.3811848176E+00
   -5.3571614689E+00   -5.3333516631E+00   -5.3097525654E+00   -5.2863613911E+00
   -5.2631754045E+00   -5.2401919174E+00   -5.2174082885E+00   -5.1948219223E+00
   -5.1724302679E+00   -5.1502308183E+00   -5.1282211094E+00   -5.1063987188E+00
   -5.0847612655E+00   -5.0633064084E+00   -5.0420318459E+00   -5.0209353149E+00
   -5.0000145900E+00   -4.9792674827E+00   -4.9586918408E+00   -4.9382855474E+00
   -4.9180465203E+00   -4.8979727114E+00   -4.8780621059E+00   -4.8583127214E+00
   -4.8387226078E+00   -4.8192898461E+00   -4.8000125480E+00   -4.7808888556E+00
   -4.7619169401E+00   -4.7430950019E+00   -4.7244212694E+00   -4.7058939991E+00
   -4.6875114747E+00   -4.6692720065E+00   -4.6511739311E+00   -4.6332156110E+00
   -4.6153954335E+00   -4.5977118105E+00   -4.5801631784E+00   -4.5627479975E+00
   -4.5454647512E+00   -4.5283119462E+00   -4.5112881112E+00   -4.4943917972E+00
   -4.4776215765E+00   -4.4609760431E+00   -4.4444538114E+00   -4.4280535164E+00
   -4.4117738134E+00   -4.3956133772E+00   -4.3795709017E+00   -4.3636451004E+00
   -4.3478347048E+00   -4.3321384652E+00   -4.3165551497E+00   -4.3010835439E+00
   -4.2857224510E+00   -4.2704706912E+00   -4.2553271013E+00   -4.2402905347E+00
   -4.2253598608E+00   -4.2105339649E+00   -4.1958117480E+00   -4.1811921263E+00
   -4.1666740311E+00   -4.1522564085E+00   -4.1379382190E+00   -4.1237184377E+00
   -4.1095960535E+00   -4.0955700691E+00   -4.0816395008E+00   -4.0678033783E+00
   -4.0540607443E+00   -4.0404106546E+00   -4.0268521774E+00   -4.0133843936E+00
   -4.0000063962E+00   -3.9867172904E+00   -3.9735161930E+00   -3.9604022327E+00
   -3.9473745496E+00   -3.9344322950E+00   -3.9215746314E+00   -3.9088007322E+00
   -3.8961097814E+00   -3.8835009738E+00   -3.8709735143E+00   -3.8585266183E+00
   -3.8461595111E+00   -3.8338714279E+00   -3.8216616137E+00   -3.8095293231E+00
   -3.7974738201E+00   -3.7854943780E+00   -3.7735902791E+00   -3.7617608150E+00
   -3.7500052859E+00   -3.7383230008E+00   -3.7267132774E+00   -3.7151754415E+00
   -3.7037088277E+00   -3.6923127785E+00   -3.6809866444E+00   -3.6697297840E+00
   -3.6585415638E+00   -3.6474213578E+00   -3.6363685477E+00   -3.6253825227E+00
   -3.6144626791E+00   -3.6036084209E+00   -3.5928191589E+00   -3.5820943110E+00
   -3.5714333020E+00   -3.5608355638E+00   -3.5503005346E+00   -3.5398276596E+00
   -3.5294163902E+00   -3.5190661846E+00   -3.5087765070E+00   -3.4985468280E+00
   -3.4883766243E+00   -3.4782653789E+00   -3.4682125804E+00   -3.4582177235E+00
   -3.4482803088E+00   -3.4383998425E+00   -3.4285758363E+00   -3.4188078078E+00
   -3.4090952799E+00   -3.3994377807E+00   -3.3898348441E+00   -3.3802860089E+00
   -3.3707908191E+00   -3.3613488240E+00   -3.3519595778E+00   -3.3426226397E+00
   -3.3333375737E+00   -3.3241039488E+00   -3.3149213387E+00   -3.3057893217E+00
   -3.2967074808E+00   -3.2876754037E+00   -3.2786926824E+00   -3.2697589135E+00
   -3.2608736979E+00   -3.2520366408E+00   -3.2432473518E+00   -3.2345054446E+00
   -3.2258105370E+00   -3.2171622511E+00   -3.2085602128E+00   -3.2000040522E+00
   -3.1914934032E+00   -3.1830279037E+00   -3.1746071953E+00   -3.1662309234E+00
   -3.1578987373E+00   -3.1496102898E+00   -3.1413652374E+00   -3.1331632402E+00
   -3.1250039617E+00   -3.1168870692E+00   -3.1088122332E+00   -3.1007791276E+00
   -3.0927874299E+00   -3.0848368206E+00   -3.0769269837E+00   -3.0690576064E+00
   -3.0612283789E+00   -3.0534389949E+00   -3.0456891509E+00   -3.0379785466E+00
   -3.0303068848E+00   -3.0226738712E+00   -3.0150792143E+00   -3.0075226260E+00
   -3.0000038205E+00   -2.9925225153E+00   -2.9850784306E+00   -2.9776712891E+00
   -2.9703008166E+00   -2.9629667415E+00   -2.9556687948E+00   -2.9484067102E+00
   -2.9411802240E+00   -2.9339890752E+00   -2.9268330050E+00   -2.9197117575E+00
   -2.9126250791E+00   -2.9055727188E+00   -2.8985544277E+00   -2.8915699597E+00
   -2.8846190707E+00   -2.8777015194E+00   -2.8708170662E+00   -2.8639654744E+00
   -2.8571465091E+00   -2.8503599379E+00   -2.8436055305E+00   -2.8368830587E+00