<UPF version="2.0.1">
  <PP_INFO>

 This pseudopotential file has been produced using the code
 ONCVPSP  (Optimized Norm-Conservinng Vanderbilt PSeudopotential)
 scalar-relativistic version 3.3.1 12/12/2017 by D. R. Hamann
 The code is available through a link at URL www.mat-simresearch.com.
 Documentation with the package provides a full discription of the
 input data below.


 While it is not required under the terms of the GNU GPL, it is
 suggested that you cite D. R. Hamann, Phys. Rev. B 88, 085117 (2013)
 in any publication using these pseudopotentials.

    <PP_INPUTFILE>
# ATOM AND REFERENCE CONFIGURATION
# atsym  z   nc   nv     iexc    psfile
  O  8.00    1    2       3      upf
#
#   n    l    f        energy (Ha)
    1    0    2.00
    2    0    2.00
    2    1    4.00
#
# PSEUDOPOTENTIAL AND OPTIMIZATION
# lmax
    1
#
#   l,   rc,      ep,       ncon, nbas, qcut
    0   1.28705  -0.87291    5    8   8.98916
    1   1.46383  -0.33804    5    8   9.14990
#
# LOCAL POTENTIAL
# lloc, lpopt,  rc(5),   dvloc0
    4    5   0.89909      0.00000
#
# VANDERBILT-KLEINMAN-BYLANDER PROJECTORs
# l, nproj, debl
    0    2   1.51851
    1    2   1.53631
#
# MODEL CORE CHARGE
# icmod, fcfact, rcfact
    0   0.00000   0.00000
#
# LOG DERIVATIVE ANALYSIS
# epsh1, epsh2, depsh
   -5.00    3.00    0.02
#
# OUTPUT GRID
# rlmax, drl
    6.00    0.01
#
# TEST CONFIGURATIONS
# ncnf
    0
# nvcnf
#   n    l    f
    </PP_INPUTFILE>
  </PP_INFO>
  <!--                               -->
  <!-- END OF HUMAN READABLE SECTION -->
  <!--                               -->
    <PP_HEADER
       generated="Generated using ONCVPSP code by D. R. Hamann"
       author="anonymous"
       date="200304"
       comment=""
       element="O "
       pseudo_type="NC"
       relativistic="scalar"
       is_ultrasoft="F"
       is_paw="F"
       is_coulomb="F"
       has_so="F"
       has_wfc="F"
       has_gipaw="F"
       core_correction="F"
       functional="PZ"
       z_valence="    6.00"
       total_psenergy="  -3.13534979937E+01"
       rho_cutoff="   9.25000000000E+00"
       l_max="1"
       l_local="-1"
       mesh_size="   926"
       number_of_wfc="2"
       number_of_proj="4"/>
 <PP_MESH>
   <PP_R type="real"  size=" 926" columns="8">
    0.0000    0.0100    0.0200    0.0300    0.0400    0.0500    0.0600    0.0700
    0.0800    0.0900    0.1000    0.1100    0.1200    0.1300    0.1400    0.1500
    0.1600    0.1700    0.1800    0.1900    0.2000    0.2100    0.2200    0.2300
    0.2400    0.2500    0.2600    0.2700    0.2800    0.2900    0.3000    0.3100
    0.3200    0.3300    0.3400    0.3500    0.3600    0.3700    0.3800    0.3900
    0.4000    0.4100    0.4200    0.4300    0.4400    0.4500    0.4600    0.4700
    0.4800    0.4900    0.5000    0.5100    0.5200    0.5300    0.5400    0.5500
    0.5600    0.5700    0.5800    0.5900    0.6000    0.6100    0.6200    0.6300
    0.6400    0.6500    0.6600    0.6700    0.6800    0.6900    0.7000    0.7100
    0.7200    0.7300    0.7400    0.7500    0.7600    0.7700    0.7800    0.7900
    0.8000    0.8100    0.8200    0.8300    0.8400    0.8500    0.8600    0.8700
    0.8800    0.8900    0.9000    0.9100    0.9200    0.9300    0.9400    0.9500
    0.9600    0.9700    0.9800    0.9900    1.0000    1.0100    1.0200    1.0300
    1.0400    1.0500    1.0600    1.0700    1.0800    1.0900    1.1000    1.1100
    1.1200    1.1300    1.1400    1.1500    1.1600    1.1700    1.1800    1.1900
    1.2000    1.2100    1.2200    1.2300    1.2400    1.2500    1.2600    1.2700
    1.2800    1.2900    1.3000    1.3100    1.3200    1.3300    1.3400    1.3500
    1.3600    1.3700    1.3800    1.3900    1.4000    1.4100    1.4200    1.4300
    1.4400    1.4500    1.4600    1.4700    1.4800    1.4900    1.5000    1.5100
    1.5200    1.5300    1.5400    1.5500    1.5600    1.5700    1.5800    1.5900
    1.6000    1.6100    1.6200    1.6300    1.6400    1.6500    1.6600    1.6700
    1.6800    1.6900    1.7000    1.7100    1.7200    1.7300    1.7400    1.7500
    1.7600    1.7700    1.7800    1.7900    1.8000    1.8100    1.8200    1.8300
    1.8400    1.8500    1.8600    1.8700    1.8800    1.8900    1.9000    1.9100
    1.9200    1.9300    1.9400    1.9500    1.9600    1.9700    1.9800    1.9900
    2.0000    2.0100    2.0200    2.0300    2.0400    2.0500    2.0600    2.0700
    2.0800    2.0900    2.1000    2.1100    2.1200    2.1300    2.1400    2.1500
    2.1600    2.1700    2.1800    2.1900    2.2000    2.2100    2.2200    2.2300
    2.2400    2.2500    2.2600    2.2700    2.2800    2.2900    2.3000    2.3100
    2.3200    2.3300    2.3400    2.3500    2.3600    2.3700    2.3800    2.3900
    2.4000    2.4100    2.4200    2.4300    2.4400    2.4500    2.4600    2.4700
    2.4800    2.4900    2.5000    2.5100    2.5200    2.5300    2.5400    2.5500
    2.5600    2.5700    2.5800    2.5900    2.6000    2.6100    2.6200    2.6300
    2.6400    2.6500    2.6600    2.6700    2.6800    2.6900    2.7000    2.7100
    2.7200    2.7300    2.7400    2.7500    2.7600    2.7700    2.7800    2.7900
    2.8000    2.8100    2.8200    2.8300    2.8400    2.8500    2.8600    2.8700
    2.8800    2.8900    2.9000    2.9100    2.9200    2.9300    2.9400    2.9500
    2.9600    2.9700    2.9800    2.9900    3.0000    3.0100    3.0200    3.0300
    3.0400    3.0500    3.0600    3.0700    3.0800    3.0900    3.1000    3.1100
    3.1200    3.1300    3.1400    3.1500    3.1600    3.1700    3.1800    3.1900
    3.2000    3.2100    3.2200    3.2300    3.2400    3.2500    3.2600    3.2700
    3.2800    3.2900    3.3000    3.3100    3.3200    3.3300    3.3400    3.3500
    3.3600    3.3700    3.3800    3.3900    3.4000    3.4100    3.4200    3.4300
    3.4400    3.4500    3.4600    3.4700    3.4800    3.4900    3.5000    3.5100
    3.5200    3.5300    3.5400    3.5500    3.5600    3.5700    3.5800    3.5900
    3.6000    3.6100    3.6200    3.6300    3.6400    3.6500    3.6600    3.6700
    3.6800    3.6900    3.7000    3.7100    3.7200    3.7300    3.7400    3.7500
    3.7600    3.7700    3.7800    3.7900    3.8000    3.8100    3.8200    3.8300
    3.8400    3.8500    3.8600    3.8700    3.8800    3.8900    3.9000    3.9100
    3.9200    3.9300    3.9400    3.9500    3.9600    3.9700    3.9800    3.9900
    4.0000    4.0100    4.0200    4.0300    4.0400    4.0500    4.0600    4.0700
    4.0800    4.0900    4.1000    4.1100    4.1200    4.1300    4.1400    4.1500
    4.1600    4.1700    4.1800    4.1900    4.2000    4.2100    4.2200    4.2300
    4.2400    4.2500    4.2600    4.2700    4.2800    4.2900    4.3000    4.3100
    4.3200    4.3300    4.3400    4.3500    4.3600    4.3700    4.3800    4.3900
    4.4000    4.4100    4.4200    4.4300    4.4400    4.4500    4.4600    4.4700
    4.4800    4.4900    4.5000    4.5100    4.5200    4.5300    4.5400    4.5500
    4.5600    4.5700    4.5800    4.5900    4.6000    4.6100    4.6200    4.6300
    4.6400    4.6500    4.6600    4.6700    4.6800    4.6900    4.7000    4.7100
    4.7200    4.7300    4.7400    4.7500    4.7600    4.7700    4.7800    4.7900
    4.8000    4.8100    4.8200    4.8300    4.8400    4.8500    4.8600    4.8700
    4.8800    4.8900    4.9000    4.9100    4.9200    4.9300    4.9400    4.9500
    4.9600    4.9700    4.9800    4.9900    5.0000    5.0100    5.0200    5.0300
    5.0400    5.0500    5.0600    5.0700    5.0800    5.0900    5.1000    5.1100
    5.1200    5.1300    5.1400    5.1500    5.1600    5.1700    5.1800    5.1900
    5.2000    5.2100    5.2200    5.2300    5.2400    5.2500    5.2600    5.2700
    5.2800    5.2900    5.3000    5.3100    5.3200    5.3300    5.3400    5.3500
    5.3600    5.3700    5.3800    5.3900    5.4000    5.4100    5.4200    5.4300
    5.4400    5.4500    5.4600    5.4700    5.4800    5.4900    5.5000    5.5100
    5.5200    5.5300    5.5400    5.5500    5.5600    5.5700    5.5800    5.5900
    5.6000    5.6100    5.6200    5.6300    5.6400    5.6500    5.6600    5.6700
    5.6800    5.6900    5.7000    5.7100    5.7200    5.7300    5.7400    5.7500
    5.7600    5.7700    5.7800    5.7900    5.8000    5.8100    5.8200    5.8300
    5.8400    5.8500    5.8600    5.8700    5.8800    5.8900    5.9000    5.9100
    5.9200    5.9300    5.9400    5.9500    5.9600    5.9700    5.9800    5.9900
    6.0000    6.0100    6.0200    6.0300    6.0400    6.0500    6.0600    6.0700
    6.0800    6.0900    6.1000    6.1100    6.1200    6.1300    6.1400    6.1500
    6.1600    6.1700    6.1800    6.1900    6.2000    6.2100    6.2200    6.2300
    6.2400    6.2500    6.2600    6.2700    6.2800    6.2900    6.3000    6.3100
    6.3200    6.3300    6.3400    6.3500    6.3600    6.3700    6.3800    6.3900
    6.4000    6.4100    6.4200    6.4300    6.4400    6.4500    6.4600    6.4700
    6.4800    6.4900    6.5000    6.5100    6.5200    6.5300    6.5400    6.5500
    6.5600    6.5700    6.5800    6.5900    6.6000    6.6100    6.6200    6.6300
    6.6400    6.6500    6.6600    6.6700    6.6800    6.6900    6.7000    6.7100
    6.7200    6.7300    6.7400    6.7500    6.7600    6.7700    6.7800    6.7900
    6.8000    6.8100    6.8200    6.8300    6.8400    6.8500    6.8600    6.8700
    6.8800    6.8900    6.9000    6.9100    6.9200    6.9300    6.9400    6.9500
    6.9600    6.9700    6.9800    6.9900    7.0000    7.0100    7.0200    7.0300
    7.0400    7.0500    7.0600    7.0700    7.0800    7.0900    7.1000    7.1100
    7.1200    7.1300    7.1400    7.1500    7.1600    7.1700    7.1800    7.1900
    7.2000    7.2100    7.2200    7.2300    7.2400    7.2500    7.2600    7.2700
    7.2800    7.2900    7.3000    7.3100    7.3200    7.3300    7.3400    7.3500
    7.3600    7.3700    7.3800    7.3900    7.4000    7.4100    7.4200    7.4300
    7.4400    7.4500    7.4600    7.4700    7.4800    7.4900    7.5000    7.5100
    7.5200    7.5300    7.5400    7.5500    7.5600    7.5700    7.5800    7.5900
    7.6000    7.6100    7.6200    7.6300    7.6400    7.6500    7.6600    7.6700
    7.6800    7.6900    7.7000    7.7100    7.7200    7.7300    7.7400    7.7500
    7.7600    7.7700    7.7800    7.7900    7.8000    7.8100    7.8200    7.8300
    7.8400    7.8500    7.8600    7.8700    7.8800    7.8900    7.9000    7.9100
    7.9200    7.9300    7.9400    7.9500    7.9600    7.9700    7.9800    7.9900
    8.0000    8.0100    8.0200    8.0300    8.0400    8.0500    8.0600    8.0700
    8.0800    8.0900    8.1000    8.1100    8.1200    8.1300    8.1400    8.1500
    8.1600    8.1700    8.1800    8.1900    8.2000    8.2100    8.2200    8.2300
    8.2400    8.2500    8.2600    8.2700    8.2800    8.2900    8.3000    8.3100
    8.3200    8.3300    8.3400    8.3500    8.3600    8.3700    8.3800    8.3900
    8.4000    8.4100    8.4200    8.4300    8.4400    8.4500    8.4600    8.4700
    8.4800    8.4900    8.5000    8.5100    8.5200    8.5300    8.5400    8.5500
    8.5600    8.5700    8.5800    8.5900    8.6000    8.6100    8.6200    8.6300
    8.6400    8.6500    8.6600    8.6700    8.6800    8.6900    8.7000    8.7100
    8.7200    8.7300    8.7400    8.7500    8.7600    8.7700    8.7800    8.7900
    8.8000    8.8100    8.8200    8.8300    8.8400    8.8500    8.8600    8.8700
    8.8800    8.8900    8.9000    8.9100    8.9200    8.9300    8.9400    8.9500
    8.9600    8.9700    8.9800    8.9900    9.0000    9.0100    9.0200    9.0300
    9.0400    9.0500    9.0600    9.0700    9.0800    9.0900    9.1000    9.1100
    9.1200    9.1300    9.1400    9.1500    9.1600    9.1700    9.1800    9.1900
    9.2000    9.2100    9.2200    9.2300    9.2400    9.2500
   </PP_R>
   <PP_RAB type="real"  size=" 926" columns="8">
    0.0100    0.0100    0.0100    0.0100    0.0100    0.0100    0.0100    0.0100
    0.0100    0.0100    0.0100    0.0100    0.0100    0.0100    0.0100    0.0100
    0.0100    0.0100    0.0100    0.0100    0.0100    0.0100    0.0100    0.0100
    0.0100    0.0100    0.0100    0.0100    0.0100    0.0100    0.0100    0.0100
    0.0100    0.0100    0.0100    0.0100    0.0100    0.0100    0.0100    0.0100
    0.0100    0.0100    0.0100    0.0100    0.0100    0.0100    0.0100    0.0100
    0.0100    0.0100    0.0100    0.0100    0.0100    0.0100    0.0100    0.0100
    0.0100    0.0100    0.0100    0.0100    0.0100    0.0100    0.0100    0.0100
    0.0100    0.0100    0.0100    0.0100    0.0100    0.0100    0.0100    0.0100
    0.0100    0.0100    0.0100    0.0100    0.0100    0.0100    0.0100    0.0100
    0.0100    0.0100    0.0100    0.0100    0.0100    0.0100    0.0100    0.0100
    0.0100    0.0100    0.0100    0.0100    0.0100    0.0100    0.0100    0.0100
    0.0100    0.0100    0.0100    0.0100    0.0100    0.0100    0.0100    0.0100
    0.0100    0.0100    0.0100    0.0100    0.0100    0.0100    0.0100    0.0100
    0.0100    0.0100    0.0100    0.0100    0.0100    0.0100    0.0100    0.0100
    0.0100    0.0100    0.0100    0.0100    0.0100    0.0100    0.0100    0.0100
    0.0100    0.0100    0.0100    0.0100    0.0100    0.0100    0.0100    0.0100
    0.0100    0.0100    0.0100    0.0100    0.0100    0.0100    0.0100    0.0100
    0.0100    0.0100    0.0100    0.0100    0.0100    0.0100    0.0100    0.0100
    0.0100    0.0100    0.0100    0.0100    0.0100    0.0100    0.0100    0.0100
    0.0100    0.0100    0.0100    0.0100    0.0100    0.0100    0.0100    0.0100
    0.0100    0.0100    0.0100    0.0100    0.0100    0.0100    0.0100    0.0100
    0.0100    0.0100    0.0100    0.0100    0.0100    0.0100    0.0100    0.0100
    0.0100    0.0100    0.0100    0.0100    0.0100    0.0100    0.0100    0.0100
    0.0100    0.0100    0.0100    0.0100    0.0100    0.0100    0.0100    0.0100
    0.0100    0.0100    0.0100    0.0100    0.0100    0.0100    0.0100    0.0100
    0.0100    0.0100    0.0100    0.0100    0.0100    0.0100    0.0100    0.0100
    0.0100    0.0100    0.0100    0.0100    0.0100    0.0100    0.0100    0.0100
    0.0100    0.0100    0.0100    0.0100    0.0100    0.0100    0.0100    0.0100
    0.0100    0.0100    0.0100    0.0100    0.0100    0.0100    0.0100    0.0100
    0.0100    0.0100    0.0100    0.0100    0.0100    0.0100    0.0100    0.0100
    0.0100    0.0100    0.0100    0.0100    0.0100    0.0100    0.0100    0.0100
    0.0100    0.0100    0.0100    0.0100    0.0100    0.0100    0.0100    0.0100
    0.0100    0.0100    0.0100    0.0100    0.0100    0.0100    0.0100    0.0100
    0.0100    0.0100    0.0100    0.0100    0.0100    0.0100    0.0100    0.0100
    0.0100    0.0100    0.0100    0.0100    0.0100    0.0100    0.0100    0.0100
    0.0100    0.0100    0.0100    0.0100    0.0100    0.0100    0.0100    0.0100
    0.0100    0.0100    0.0100    0.0100    0.0100    0.0100    0.0100    0.0100
    0.0100    0.0100    0.0100    0.0100    0.0100    0.0100    0.0100    0.0100
    0.0100    0.0100    0.0100    0.0100    0.0100    0.0100    0.0100    0.0100
    0.0100    0.0100    0.0100    0.0100    0.0100    0.0100    0.0100    0.0100
    0.0100    0.0100    0.0100    0.0100    0.0100    0.0100    0.0100    0.0100
    0.0100    0.0100    0.0100    0.0100    0.0100    0.0100    0.0100    0.0100
    0.0100    0.0100    0.0100    0.0100    0.0100    0.0100    0.0100    0.0100
    0.0100    0.0100    0.0100    0.0100    0.0100    0.0100    0.0100    0.0100
    0.0100    0.0100    0.0100    0.0100    0.0100    0.0100    0.0100    0.0100
    0.0100    0.0100    0.0100    0.0100    0.0100    0.0100    0.0100    0.0100
    0.0100    0.0100    0.0100    0.0100    0.0100    0.0100    0.0100    0.0100
    0.0100    0.0100    0.0100    0.0100    0.0100    0.0100    0.0100    0.0100
    0.0100    0.0100    0.0100    0.0100    0.0100    0.0100    0.0100    0.0100
    0.0100    0.0100    0.0100    0.0100    0.0100    0.0100    0.0100    0.0100
    0.0100    0.0100    0.0100    0.0100    0.0100    0.0100    0.0100    0.0100
    0.0100    0.0100    0.0100    0.0100    0.0100    0.0100    0.0100    0.0100
    0.0100    0.0100    0.0100    0.0100    0.0100    0.0100    0.0100    0.0100
    0.0100    0.0100    0.0100    0.0100    0.0100    0.0100    0.0100    0.0100
    0.0100    0.0100    0.0100    0.0100    0.0100    0.0100    0.0100    0.0100
    0.0100    0.0100    0.0100    0.0100    0.0100    0.0100    0.0100    0.0100
    0.0100    0.0100    0.0100    0.0100    0.0100    0.0100    0.0100    0.0100
    0.0100    0.0100    0.0100    0.0100    0.0100    0.0100    0.0100    0.0100
    0.0100    0.0100    0.0100    0.0100    0.0100    0.0100    0.0100    0.0100
    0.0100    0.0100    0.0100    0.0100    0.0100    0.0100    0.0100    0.0100
    0.0100    0.0100    0.0100    0.0100    0.0100    0.0100    0.0100    0.0100
    0.0100    0.0100    0.0100    0.0100    0.0100    0.0100    0.0100    0.0100
    0.0100    0.0100    0.0100    0.0100    0.0100    0.0100    0.0100    0.0100
    0.0100    0.0100    0.0100    0.0100    0.0100    0.0100    0.0100    0.0100
    0.0100    0.0100    0.0100    0.0100    0.0100    0.0100    0.0100    0.0100
    0.0100    0.0100    0.0100    0.0100    0.0100    0.0100    0.0100    0.0100
    0.0100    0.0100    0.0100    0.0100    0.0100    0.0100    0.0100    0.0100
    0.0100    0.0100    0.0100    0.0100    0.0100    0.0100    0.0100    0.0100
    0.0100    0.0100    0.0100    0.0100    0.0100    0.0100    0.0100    0.0100
    0.0100    0.0100    0.0100    0.0100    0.0100    0.0100    0.0100    0.0100
    0.0100    0.0100    0.0100    0.0100    0.0100    0.0100    0.0100    0.0100
    0.0100    0.0100    0.0100    0.0100    0.0100    0.0100    0.0100    0.0100
    0.0100    0.0100    0.0100    0.0100    0.0100    0.0100    0.0100    0.0100
    0.0100    0.0100    0.0100    0.0100    0.0100    0.0100    0.0100    0.0100
    0.0100    0.0100    0.0100    0.0100    0.0100    0.0100    0.0100    0.0100
    0.0100    0.0100    0.0100    0.0100    0.0100    0.0100    0.0100    0.0100
    0.0100    0.0100    0.0100    0.0100    0.0100    0.0100    0.0100    0.0100
    0.0100    0.0100    0.0100    0.0100    0.0100    0.0100    0.0100    0.0100
    0.0100    0.0100    0.0100    0.0100    0.0100    0.0100    0.0100    0.0100
    0.0100    0.0100    0.0100    0.0100    0.0100    0.0100    0.0100    0.0100
    0.0100    0.0100    0.0100    0.0100    0.0100    0.0100    0.0100    0.0100
    0.0100    0.0100    0.0100    0.0100    0.0100    0.0100    0.0100    0.0100
    0.0100    0.0100    0.0100    0.0100    0.0100    0.0100    0.0100    0.0100
    0.0100    0.0100    0.0100    0.0100    0.0100    0.0100    0.0100    0.0100
    0.0100    0.0100    0.0100    0.0100    0.0100    0.0100    0.0100    0.0100
    0.0100    0.0100    0.0100    0.0100    0.0100    0.0100    0.0100    0.0100
    0.0100    0.0100    0.0100    0.0100    0.0100    0.0100    0.0100    0.0100
    0.0100    0.0100    0.0100    0.0100    0.0100    0.0100    0.0100    0.0100
    0.0100    0.0100    0.0100    0.0100    0.0100    0.0100    0.0100    0.0100
    0.0100    0.0100    0.0100    0.0100    0.0100    0.0100    0.0100    0.0100
    0.0100    0.0100    0.0100    0.0100    0.0100    0.0100    0.0100    0.0100
    0.0100    0.0100    0.0100    0.0100    0.0100    0.0100    0.0100    0.0100
    0.0100    0.0100    0.0100    0.0100    0.0100    0.0100    0.0100    0.0100
    0.0100    0.0100    0.0100    0.0100    0.0100    0.0100    0.0100    0.0100
    0.0100    0.0100    0.0100    0.0100    0.0100    0.0100    0.0100    0.0100
    0.0100    0.0100    0.0100    0.0100    0.0100    0.0100    0.0100    0.0100
    0.0100    0.0100    0.0100    0.0100    0.0100    0.0100    0.0100    0.0100
    0.0100    0.0100    0.0100    0.0100    0.0100    0.0100    0.0100    0.0100
    0.0100    0.0100    0.0100    0.0100    0.0100    0.0100    0.0100    0.0100
    0.0100    0.0100    0.0100    0.0100    0.0100    0.0100    0.0100    0.0100
    0.0100    0.0100    0.0100    0.0100    0.0100    0.0100    0.0100    0.0100
    0.0100    0.0100    0.0100    0.0100    0.0100    0.0100    0.0100    0.0100
    0.0100    0.0100    0.0100    0.0100    0.0100    0.0100    0.0100    0.0100
    0.0100    0.0100    0.0100    0.0100    0.0100    0.0100    0.0100    0.0100
    0.0100    0.0100    0.0100    0.0100    0.0100    0.0100    0.0100    0.0100
    0.0100    0.0100    0.0100    0.0100    0.0100    0.0100    0.0100    0.0100
    0.0100    0.0100    0.0100    0.0100    0.0100    0.0100    0.0100    0.0100
    0.0100    0.0100    0.0100    0.0100    0.0100    0.0100    0.0100    0.0100
    0.0100    0.0100    0.0100    0.0100    0.0100    0.0100    0.0100    0.0100
    0.0100    0.0100    0.0100    0.0100    0.0100    0.0100    0.0100    0.0100
    0.0100    0.0100    0.0100    0.0100    0.0100    0.0100    0.0100    0.0100
    0.0100    0.0100    0.0100    0.0100    0.0100    0.0100    0.0100    0.0100
    0.0100    0.0100    0.0100    0.0100    0.0100    0.0100    0.0100    0.0100
    0.0100    0.0100    0.0100    0.0100    0.0100    0.0100    0.0100    0.0100
    0.0100    0.0100    0.0100    0.0100    0.0100    0.0100
   </PP_RAB>
 </PP_MESH>
  <PP_LOCAL type="real"  size=" 926" columns="4">
   -2.9510034079E+01   -2.9505136295E+01   -2.9490415349E+01   -2.9466005585E+01
   -2.9432085762E+01   -2.9388889633E+01   -2.9336692440E+01   -2.9275796982E+01
   -2.9206542877E+01   -2.9129121821E+01   -2.9043949001E+01   -2.8951329963E+01
   -2.8851555185E+01   -2.8744897992E+01   -2.8631613898E+01   -2.8511940986E+01
   -2.8386100973E+01   -2.8254300693E+01   -2.8116733781E+01   -2.7973582434E+01
   -2.7825019127E+01   -2.7671208248E+01   -2.7512307601E+01   -2.7348469768E+01
   -2.7179843332E+01   -2.7006573946E+01   -2.6828805285E+01   -2.6646679857E+01
   -2.6460339717E+01   -2.6269927072E+01   -2.6075584795E+01   -2.5877456859E+01
   -2.5675688703E+01   -2.5470427523E+01   -2.5261822512E+01   -2.5050025044E+01
   -2.4835188813E+01   -2.4617469926E+01   -2.4397026953E+01   -2.4174020954E+01
   -2.3948615454E+01   -2.3720976402E+01   -2.3491272096E+01   -2.3259673080E+01
   -2.3026352019E+01   -2.2791483548E+01   -2.2555244101E+01   -2.2317811722E+01
   -2.2079365850E+01   -2.1840087096E+01   -2.1600156993E+01   -2.1359757735E+01
   -2.1119071905E+01   -2.0878282183E+01   -2.0637571043E+01   -2.0397120441E+01
   -2.0157111487E+01   -1.9917724111E+01   -1.9679136716E+01   -1.9441525827E+01
   -1.9205065725E+01   -1.8969928079E+01   -1.8736281570E+01   -1.8504291508E+01
   -1.8274119445E+01   -1.8045922778E+01   -1.7819854356E+01   -1.7596062074E+01
   -1.7374688468E+01   -1.7155870310E+01   -1.6939738190E+01   -1.6726416105E+01
   -1.6516021039E+01   -1.6308662547E+01   -1.6104442331E+01   -1.5903453818E+01
   -1.5705781732E+01   -1.5511501671E+01   -1.5320679674E+01   -1.5133371794E+01
   -1.4949623662E+01   -1.4769470055E+01   -1.4592934459E+01   -1.4420028628E+01
   -1.4250752145E+01   -1.4085091977E+01   -1.3923022028E+01   -1.3764502686E+01
   -1.3609480372E+01   -1.3457887075E+01   -1.3309639998E+01   -1.3164640770E+01
   -1.3022782092E+01   -1.2883958122E+01   -1.2748068166E+01   -1.2615015860E+01
   -1.2484709095E+01   -1.2357059811E+01   -1.2231983801E+01   -1.2109400529E+01
   -1.1989232961E+01   -1.1871407401E+01   -1.1755853334E+01   -1.1642503277E+01
   -1.1531292641E+01   -1.1422159586E+01   -1.1315044895E+01   -1.1209891844E+01
   -1.1106646079E+01   -1.1005255497E+01   -1.0905670131E+01   -1.0807842032E+01
   -1.0711725204E+01   -1.0617275467E+01   -1.0524449636E+01   -1.0433209644E+01
   -1.0343516108E+01   -1.0255324934E+01   -1.0168602459E+01   -1.0083315383E+01
   -9.9994286859E+00   -9.9169095315E+00   -9.8357260302E+00   -9.7558472628E+00
   -9.6772432644E+00   -9.5998849623E+00   -9.5237441288E+00   -9.4487933376E+00
   -9.3750059253E+00   -9.3023559569E+00   -9.2308181952E+00   -9.1603680750E+00
   -9.0909816778E+00   -9.0226357101E+00   -8.9553074821E+00   -8.8889748900E+00
   -8.8236164011E+00   -8.7592110380E+00   -8.6957383648E+00   -8.6331784752E+00
   -8.5715119803E+00   -8.5107199979E+00   -8.4507841416E+00   -8.3916865102E+00
   -8.3334096776E+00   -8.2759366821E+00   -8.2192510155E+00   -8.1633366124E+00
   -8.1081778385E+00   -8.0537594789E+00   -8.0000667249E+00   -7.9470851593E+00
   -7.8948007441E+00   -7.8431998088E+00   -7.7922690377E+00   -7.7419954592E+00
   -7.6923664340E+00   -7.6433696451E+00   -7.5949930873E+00   -7.5472250575E+00
   -7.5000541452E+00   -7.4534692233E+00   -7.4074594397E+00   -7.3620142085E+00
   -7.3171232021E+00   -7.2727763431E+00   -7.2289637973E+00   -7.1856759657E+00
   -7.1429034781E+00   -7.1006371860E+00   -7.0588681562E+00   -7.0175876645E+00
   -6.9767871896E+00   -6.9364584072E+00   -6.8965931845E+00   -6.8571835743E+00
   -6.8182218104E+00   -6.7797003018E+00   -6.7416116284E+00   -6.7039485356E+00
   -6.6667039303E+00   -6.6298708760E+00   -6.5934425887E+00   -6.5574124327E+00
   -6.5217739165E+00   -6.4865206890E+00   -6.4516465357E+00   -6.4171453751E+00
   -6.3830112550E+00   -6.3492383492E+00   -6.3158209542E+00   -6.2827534859E+00
   -6.2500304765E+00   -6.2176465716E+00   -6.1855965273E+00   -6.1538752070E+00
   -6.1224775792E+00   -6.0913987144E+00   -6.0606337828E+00   -6.0301780515E+00
   -6.0000268826E+00   -5.9701757301E+00   -5.9406201382E+00   -5.9113557391E+00
   -5.8823782503E+00   -5.8536834731E+00   -5.8252672901E+00   -5.7971256638E+00
   -5.7692546341E+00   -5.7416503167E+00   -5.7143089014E+00   -5.6872266502E+00
   -5.6603998956E+00   -5.6338250389E+00   -5.6074985488E+00   -5.5814169596E+00
   -5.5555768700E+00   -5.5299749410E+00   -5.5046078953E+00   -5.4794725151E+00
   -5.4545656413E+00   -5.4298841721E+00   -5.4054250612E+00   -5.3811853173E+00
   -5.3571620024E+00   -5.3333522307E+00   -5.3097531675E+00   -5.2863620280E+00
   -5.2631760764E+00   -5.2401926246E+00   -5.2174090313E+00   -5.1948227007E+00
   -5.1724310821E+00   -5.1502316684E+00   -5.1282219954E+00   -5.1063996408E+00
   -5.0847622234E+00   -5.0633074023E+00   -5.0420328756E+00   -5.0209363804E+00
   -5.0000156910E+00   -4.9792686192E+00   -4.9586930125E+00   -4.9382867541E+00
   -4.9180477617E+00   -4.8979739872E+00   -4.8780634158E+00   -4.8583140650E+00
   -4.8387239848E+00   -4.8192912561E+00   -4.8000139906E+00   -4.7808903303E+00
   -4.7619184464E+00   -4.7430965392E+00   -4.7244228374E+00   -4.7058955973E+00
   -4.6875131024E+00   -4.6692736633E+00   -4.6511756163E+00   -4.6332173238E+00
   -4.6153971731E+00   -4.5977135764E+00   -4.5801649702E+00   -4.5627498144E+00
   -4.5454665928E+00   -4.5283138115E+00   -4.5112899996E+00   -4.4943937078E+00
   -4.4776235087E+00   -4.4609779960E+00   -4.4444557844E+00   -4.4280555088E+00
   -4.4117758243E+00   -4.3956154058E+00   -4.3795729474E+00   -4.3636471623E+00
   -4.3478367821E+00   -4.3321405572E+00   -4.3165572555E+00   -4.3010856628E+00
   -4.2857245822E+00   -4.2704728339E+00   -4.2553292547E+00   -4.2402926980E+00
   -4.2253620332E+00   -4.2105361457E+00   -4.1958139363E+00   -4.1811943214E+00
   -4.1666762322E+00   -4.1522586149E+00   -4.1379404299E+00   -4.1237206524E+00
   -4.1095982711E+00   -4.0955722889E+00   -4.0816417221E+00   -4.0678056004E+00
   -4.0540629665E+00   -4.0404128761E+00   -4.0268543976E+00   -4.0133866117E+00
   -4.0000086116E+00   -3.9867195023E+00   -3.9735184008E+00   -3.9604044357E+00
   -3.9473767472E+00   -3.9344344866E+00   -3.9215768164E+00   -3.9088029099E+00
   -3.8961119513E+00   -3.8835031352E+00   -3.8709756668E+00   -3.8585287612E+00
   -3.8461616438E+00   -3.8338735500E+00   -3.8216637246E+00   -3.8095314223E+00
   -3.7974759070E+00   -3.7854964522E+00   -3.7735923402E+00   -3.7617628624E+00
   -3.7500073192E+00   -3.7383250196E+00   -3.7267152812E+00   -3.7151774300E+00
   -3.7037108004E+00   -3.6923147350E+00   -3.6809885844E+00   -3.6697317072E+00
   -3.6585434697E+00   -3.6474232462E+00   -3.6363704182E+00   -3.6253843749E+00
   -3.6144645129E+00   -3.6036102359E+00   -3.5928209548E+00   -3.5820960876E+00
   -3.5714350592E+00   -3.5608373011E+00   -3.5503022520E+00   -3.5398293567E+00
   -3.5294180669E+00   -3.5190678407E+00   -3.5087781423E+00   -3.4985484424E+00
   -3.4883782176E+00   -3.4782669509E+00   -3.4682141311E+00   -3.4582192528E+00
   -3.4482818165E+00   -3.4384013284E+00   -3.4285773005E+00   -3.4188092501E+00
   -3.4090967002E+00   -3.3994391791E+00   -3.3898362204E+00   -3.3802873631E+00
   -3.3707921512E+00   -3.3613501340E+00   -3.3519608656E+00   -3.3426239053E+00
   -3.3333388172E+00   -3.3241051701E+00   -3.3149225378E+00   -3.3057904987E+00
   -3.2967086358E+00   -3.2876765367E+00   -3.2786937934E+00   -3.2697600026E+00
   -3.2608747651E+00   -3.2520376863E+00   -3.2432483755E+00   -3.2345064466E+00
   -3.2258115175E+00   -3.2171632101E+00   -3.2085611505E+00   -3.2000049686E+00
   -3.1914942985E+00   -3.1830287779E+00   -3.1746080486E+00   -3.1662317560E+00
   -3.1578995492E+00   -3.1496110812E+00   -3.1413660084E+00   -3.1331639909E+00
   -3.1250046924E+00   -3.1168877799E+00   -3.1088129241E+00   -3.1007797989E+00
   -3.0927880817E+00   -3.0848374531E+00   -3.0769275971E+00   -3.0690582007E+00
   -3.0612289545E+00   -3.0534395518E+00   -3.0456896894E+00   -3.0379790669E+00
   -3.0303073870E+00   -3.0226743554E+00   -3.0150796809E+00   -3.0075230750E+00
   -3.0000042522E+00   -2.9925229299E+00   -2.9850788281E+00   -2.9776716699E+00
   -2.9703011809E+00   -2.9629670894E+00   -2.9556691265E+00   -2.9484070259E+00
   -2.9411805240E+00   -2.9339893595E+00   -2.9268332740E+00   -2.9197120113E+00
   -2.9126253179E+00   -2.9055729428E+00   -2.8985546372E+00   -2.8915701547E+00
   -2.8846192516E+00   -2.8777016863E+00   -2.8708172194E+00   -2.8639656140E+00
   -2.8571466353E+00   -2.8503600509E+00   -2.8436056305E+00   -2.8368831459E+00
   -2.8301923712E+00   -2.8235330826E+00   -2.8169050584E+00   -2.8103080787E+00
   -2.8037419262E+00   -2.7972063851E+00   -2.7907012420E+00   -2.7842262852E+00
   -2.7777813051E+00   -2.7713660940E+00   -2.7649804462E+00   -2.7586241577E+00